 
data_BaCoSO 
 
_audit_creation_method            SHELXL-97 
_chemical_name_systematic 
; 
 ? 
; 
_chemical_name_common             ? 
_chemical_melting_point           ? 
_chemical_formula_moiety          ? 
_chemical_formula_sum 
 'Ba Co O S' 
_chemical_formula_weight          244.33 
 
loop_ 
 _atom_type_symbol 
 _atom_type_description 
 _atom_type_scat_dispersion_real 
 _atom_type_scat_dispersion_imag 
 _atom_type_scat_source 
 'O'  'O'   0.0106   0.0060 
 'International Tables Vol C Tables 4.2.6.8 and 6.1.1.4' 
 'S'  'S'   0.1246   0.1234 
 'International Tables Vol C Tables 4.2.6.8 and 6.1.1.4' 
 'Co'  'Co'   0.3494   0.9721 
 'International Tables Vol C Tables 4.2.6.8 and 6.1.1.4' 
 'Ba'  'Ba'  -0.3244   2.2819 
 'International Tables Vol C Tables 4.2.6.8 and 6.1.1.4' 
 
_symmetry_cell_setting            ? 
_symmetry_space_group_name_H-M    ? 
 
loop_ 
 _symmetry_equiv_pos_as_xyz 
 'x, y, z' 
 '-x, -y, z+1/2' 
 '-x, y, -z+1/2' 
 'x, -y, -z' 
 'x+1/2, y+1/2, z' 
 '-x+1/2, -y+1/2, z+1/2' 
 '-x+1/2, y+1/2, -z+1/2' 
 'x+1/2, -y+1/2, -z' 
 '-x, -y, -z' 
 'x, y, -z-1/2' 
 'x, -y, z-1/2' 
 '-x, y, z' 
 '-x+1/2, -y+1/2, -z' 
 'x+1/2, y+1/2, -z-1/2' 
 'x+1/2, -y+1/2, z-1/2' 
 '-x+1/2, y+1/2, z' 
 
_cell_length_a                    3.9848(3) 
_cell_length_b                    12.7549(10) 
_cell_length_c                    6.1028(5) 
_cell_angle_alpha                 90.00 
_cell_angle_beta                  90.00 
_cell_angle_gamma                 90.00 
_cell_volume                      310.18(4) 
_cell_formula_units_Z             4 
_cell_measurement_temperature     299(2) 
_cell_measurement_reflns_used     ? 
_cell_measurement_theta_min       ? 
_cell_measurement_theta_max       ? 
 
_exptl_crystal_description        ? 
_exptl_crystal_colour             ? 
_exptl_crystal_size_max           ? 
_exptl_crystal_size_mid           ? 
_exptl_crystal_size_min           ? 
_exptl_crystal_density_meas       ? 
_exptl_crystal_density_diffrn     5.232 
_exptl_crystal_density_method     'not measured' 
_exptl_crystal_F_000              428 
_exptl_absorpt_coefficient_mu     18.344 
_exptl_absorpt_correction_type    ? 
_exptl_absorpt_correction_T_min   ? 
_exptl_absorpt_correction_T_max   ? 
_exptl_absorpt_process_details    ? 
 
_exptl_special_details 
; 
 ? 
; 
 
_diffrn_ambient_temperature       299(2) 
_diffrn_radiation_wavelength      0.71073 
_diffrn_radiation_type            MoK\a 
_diffrn_radiation_source          'fine-focus sealed tube' 
_diffrn_radiation_monochromator   graphite 
_diffrn_measurement_device_type   ? 
_diffrn_measurement_method        ? 
_diffrn_detector_area_resol_mean  ? 
_diffrn_standards_number          ? 
_diffrn_standards_interval_count  ? 
_diffrn_standards_interval_time   ? 
_diffrn_standards_decay_%         ? 
_diffrn_reflns_number             4926 
_diffrn_reflns_av_R_equivalents   0.0348 
_diffrn_reflns_av_sigmaI/netI     0.0214 
_diffrn_reflns_limit_h_min        -7 
_diffrn_reflns_limit_h_max        8 
_diffrn_reflns_limit_k_min        -26 
_diffrn_reflns_limit_k_max        21 
_diffrn_reflns_limit_l_min        -12 
_diffrn_reflns_limit_l_max        11 
_diffrn_reflns_theta_min          4.62 
_diffrn_reflns_theta_max          48.17 
_reflns_number_total              840 
_reflns_number_gt                 832 
_reflns_threshold_expression      >2sigma(I) 
 
_computing_data_collection        ? 
_computing_cell_refinement        ? 
_computing_data_reduction         ? 
_computing_structure_solution     'SHELXS-97 (Sheldrick, 1990)' 
_computing_structure_refinement   'SHELXL-97 (Sheldrick, 1997)' 
_computing_molecular_graphics     ? 
_computing_publication_material   ? 
 
_refine_special_details 
; 
 Refinement of F^2^ against ALL reflections.  The weighted R-factor wR and 
 goodness of fit S are based on F^2^, conventional R-factors R are based 
 on F, with F set to zero for negative F^2^. The threshold expression of 
 F^2^ > 2sigma(F^2^) is used only for calculating R-factors(gt) etc. and is 
 not relevant to the choice of reflections for refinement.  R-factors based 
 on F^2^ are statistically about twice as large as those based on F, and R- 
 factors based on ALL data will be even larger. 
; 
 
_refine_ls_structure_factor_coef  Fsqd  
_refine_ls_matrix_type            full 
_refine_ls_weighting_scheme       calc  
_refine_ls_weighting_details 
 'calc w=1/[\s^2^(Fo^2^)+(0.0186P)^2^+0.5308P] where P=(Fo^2^+2Fc^2^)/3' 
_atom_sites_solution_primary      direct 
_atom_sites_solution_secondary    difmap 
_atom_sites_solution_hydrogens    geom 
_refine_ls_hydrogen_treatment     mixed 
_refine_ls_extinction_method      SHELXL 
_refine_ls_extinction_coef        0.0063(6) 
_refine_ls_extinction_expression 
 'Fc^*^=kFc[1+0.001xFc^2^\l^3^/sin(2\q)]^-1/4^' 
_refine_ls_number_reflns          840 
_refine_ls_number_parameters      18 
_refine_ls_number_restraints      0 
_refine_ls_R_factor_all           0.0183 
_refine_ls_R_factor_gt            0.0180 
_refine_ls_wR_factor_ref          0.0466 
_refine_ls_wR_factor_gt           0.0465 
_refine_ls_goodness_of_fit_ref    1.205 
_refine_ls_restrained_S_all       1.205 
_refine_ls_shift/su_max           0.024 
_refine_ls_shift/su_mean          0.006 
 
loop_ 
 _atom_site_label 
 _atom_site_type_symbol 
 _atom_site_fract_x 
 _atom_site_fract_y 
 _atom_site_fract_z 
 _atom_site_U_iso_or_equiv 
 _atom_site_adp_type 
 _atom_site_occupancy 
 _atom_site_symmetry_multiplicity 
 _atom_site_calc_flag 
 _atom_site_refinement_flags 
 _atom_site_disorder_assembly 
 _atom_site_disorder_group 
Ba1 Ba 0.0000 0.386329(10) 0.2500 0.00956(4) Uani 1 4 d S . . 
Co2 Co 0.0000 0.09447(3) 0.2500 0.00877(5) Uani 1 4 d S . . 
S3 S 0.0000 0.69080(5) 0.2500 0.00956(8) Uani 1 4 d S . . 
O4 O 0.0000 0.0000 0.0000 0.0136(3) Uani 1 4 d S . . 
 
loop_ 
 _atom_site_aniso_label 
 _atom_site_aniso_U_11 
 _atom_site_aniso_U_22 
 _atom_site_aniso_U_33 
 _atom_site_aniso_U_23 
 _atom_site_aniso_U_13 
 _atom_site_aniso_U_12 
Ba1 0.00914(6) 0.01074(6) 0.00880(6) 0.000 0.000 0.000 
Co2 0.00915(12) 0.00876(10) 0.00839(10) 0.000 0.000 0.000 
S3 0.00763(19) 0.01034(18) 0.01072(19) 0.000 0.000 0.000 
O4 0.0164(7) 0.0136(6) 0.0107(6) -0.0049(5) 0.000 0.000 
 
_geom_special_details 
; 
 All esds (except the esd in the dihedral angle between two l.s. planes) 
 are estimated using the full covariance matrix.  The cell esds are taken 
 into account individually in the estimation of esds in distances, angles 
 and torsion angles; correlations between esds in cell parameters are only 
 used when they are defined by crystal symmetry.  An approximate (isotropic) 
 treatment of cell esds is used for estimating esds involving l.s. planes. 
; 
 
loop_ 
 _geom_bond_atom_site_label_1 
 _geom_bond_atom_site_label_2 
 _geom_bond_distance 
 _geom_bond_site_symmetry_2 
 _geom_bond_publ_flag 
Ba1 O4 2.89819(15) 6 ? 
Ba1 O4 2.89819(15) 5 ? 
Ba1 O4 2.89819(15) 5_455 ? 
Ba1 O4 2.89819(15) 6_455 ? 
Ba1 S3 3.1921(5) 5_445 ? 
Ba1 S3 3.1921(5) 5_545 ? 
Ba1 S3 3.2061(3) 9_565 ? 
Ba1 S3 3.2061(3) 9_566 ? 
Ba1 Co2 3.3193(3) 5 ? 
Ba1 Co2 3.3193(3) 5_455 ? 
Ba1 Co2 3.6525(2) 13_556 ? 
Ba1 Co2 3.6525(2) 13_455 ? 
Co2 O4 1.9442(2) . ? 
Co2 O4 1.9442(2) 2 ? 
Co2 S3 2.3408(4) 5_545 ? 
Co2 S3 2.3408(4) 5_445 ? 
Co2 Ba1 3.3193(3) 5_445 ? 
Co2 Ba1 3.3193(3) 5_545 ? 
Co2 Ba1 3.6525(2) 13_556 ? 
Co2 Ba1 3.6525(2) 13_455 ? 
Co2 Ba1 3.6525(2) 13_456 ? 
Co2 Ba1 3.6525(2) 13 ? 
S3 Co2 2.3408(4) 5_455 ? 
S3 Co2 2.3408(4) 5 ? 
S3 Ba1 3.1921(5) 5 ? 
S3 Ba1 3.1921(5) 5_455 ? 
S3 Ba1 3.2061(3) 9_565 ? 
S3 Ba1 3.2061(3) 9_566 ? 
O4 Co2 1.9442(2) 9 ? 
O4 Ba1 2.89819(15) 5_445 ? 
O4 Ba1 2.89819(15) 5_545 ? 
O4 Ba1 2.89819(15) 13_455 ? 
O4 Ba1 2.89819(15) 13 ? 
 
loop_ 
 _geom_angle_atom_site_label_1 
 _geom_angle_atom_site_label_2 
 _geom_angle_atom_site_label_3 
 _geom_angle 
 _geom_angle_site_symmetry_1 
 _geom_angle_site_symmetry_3 
 _geom_angle_publ_flag 
O4 Ba1 O4 63.529(5) 6 5 ? 
O4 Ba1 O4 119.965(7) 6 5_455 ? 
O4 Ba1 O4 86.859(6) 5 5_455 ? 
O4 Ba1 O4 86.859(6) 6 6_455 ? 
O4 Ba1 O4 119.965(7) 5 6_455 ? 
O4 Ba1 O4 63.529(5) 5_455 6_455 ? 
O4 Ba1 S3 145.079(4) 6 5_445 ? 
O4 Ba1 S3 145.079(4) 5 5_445 ? 
O4 Ba1 S3 87.808(8) 5_455 5_445 ? 
O4 Ba1 S3 87.808(8) 6_455 5_445 ? 
O4 Ba1 S3 87.808(8) 6 5_545 ? 
O4 Ba1 S3 87.808(8) 5 5_545 ? 
O4 Ba1 S3 145.079(4) 5_455 5_545 ? 
O4 Ba1 S3 145.079(4) 6_455 5_545 ? 
S3 Ba1 S3 77.243(15) 5_445 5_545 ? 
O4 Ba1 S3 130.885(5) 6 9_565 ? 
O4 Ba1 S3 69.664(8) 5 9_565 ? 
O4 Ba1 S3 69.664(8) 5_455 9_565 ? 
O4 Ba1 S3 130.885(5) 6_455 9_565 ? 
S3 Ba1 S3 76.129(7) 5_445 9_565 ? 
S3 Ba1 S3 76.129(7) 5_545 9_565 ? 
O4 Ba1 S3 69.664(8) 6 9_566 ? 
O4 Ba1 S3 130.885(5) 5 9_566 ? 
O4 Ba1 S3 130.885(5) 5_455 9_566 ? 
O4 Ba1 S3 69.664(8) 6_455 9_566 ? 
S3 Ba1 S3 76.129(7) 5_445 9_566 ? 
S3 Ba1 S3 76.129(7) 5_545 9_566 ? 
S3 Ba1 S3 144.26(2) 9_565 9_566 ? 
O4 Ba1 Co2 35.633(3) 6 5 ? 
O4 Ba1 Co2 35.633(3) 5 5 ? 
O4 Ba1 Co2 90.718(7) 5_455 5 ? 
O4 Ba1 Co2 90.718(7) 6_455 5 ? 
S3 Ba1 Co2 178.266(7) 5_445 5 ? 
S3 Ba1 Co2 104.492(10) 5_545 5 ? 
S3 Ba1 Co2 104.207(9) 9_565 5 ? 
S3 Ba1 Co2 104.207(9) 9_566 5 ? 
O4 Ba1 Co2 90.718(7) 6 5_455 ? 
O4 Ba1 Co2 90.718(7) 5 5_455 ? 
O4 Ba1 Co2 35.633(3) 5_455 5_455 ? 
O4 Ba1 Co2 35.633(3) 6_455 5_455 ? 
S3 Ba1 Co2 104.492(10) 5_445 5_455 ? 
S3 Ba1 Co2 178.266(7) 5_545 5_455 ? 
S3 Ba1 Co2 104.207(8) 9_565 5_455 ? 
S3 Ba1 Co2 104.207(9) 9_566 5_455 ? 
Co2 Ba1 Co2 73.774(9) 5 5_455 ? 
O4 Ba1 Co2 31.969(5) 6 13_556 ? 
O4 Ba1 Co2 91.791(6) 5 13_556 ? 
O4 Ba1 Co2 141.377(7) 5_455 13_556 ? 
O4 Ba1 Co2 84.357(6) 6_455 13_556 ? 
S3 Ba1 Co2 113.132(6) 5_445 13_556 ? 
S3 Ba1 Co2 73.255(6) 5_545 13_556 ? 
S3 Ba1 Co2 144.656(5) 9_565 13_556 ? 
S3 Ba1 Co2 39.235(7) 9_566 13_556 ? 
Co2 Ba1 Co2 67.602(7) 5 13_556 ? 
Co2 Ba1 Co2 105.891(5) 5_455 13_556 ? 
O4 Ba1 Co2 141.377(7) 6 13_455 ? 
O4 Ba1 Co2 84.357(6) 5 13_455 ? 
O4 Ba1 Co2 31.969(5) 5_455 13_455 ? 
O4 Ba1 Co2 91.791(6) 6_455 13_455 ? 
S3 Ba1 Co2 73.255(6) 5_445 13_455 ? 
S3 Ba1 Co2 113.132(6) 5_545 13_455 ? 
S3 Ba1 Co2 39.235(7) 9_565 13_455 ? 
S3 Ba1 Co2 144.656(5) 9_566 13_455 ? 
Co2 Ba1 Co2 105.891(5) 5 13_455 ? 
Co2 Ba1 Co2 67.602(7) 5_455 13_455 ? 
Co2 Ba1 Co2 172.313(12) 13_556 13_455 ? 
O4 Co2 O4 103.396(17) . 2 ? 
O4 Co2 S3 108.986(8) . 5_545 ? 
O4 Co2 S3 108.986(8) 2 5_545 ? 
O4 Co2 S3 108.986(8) . 5_445 ? 
O4 Co2 S3 108.986(7) 2 5_445 ? 
S3 Co2 S3 116.68(3) 5_545 5_445 ? 
O4 Co2 Ba1 60.282(8) . 5_445 ? 
O4 Co2 Ba1 60.282(8) 2 5_445 ? 
S3 Co2 Ba1 158.548(17) 5_545 5_445 ? 
S3 Co2 Ba1 84.774(14) 5_445 5_445 ? 
O4 Co2 Ba1 60.282(8) . 5_545 ? 
O4 Co2 Ba1 60.282(8) 2 5_545 ? 
S3 Co2 Ba1 84.774(14) 5_545 5_545 ? 
S3 Co2 Ba1 158.548(17) 5_445 5_545 ? 
Ba1 Co2 Ba1 73.774(9) 5_445 5_545 ? 
O4 Co2 Ba1 134.199(10) . 13_556 ? 
O4 Co2 Ba1 52.116(4) 2 13_556 ? 
S3 Co2 Ba1 60.034(5) 5_545 13_556 ? 
S3 Co2 Ba1 115.412(9) 5_445 13_556 ? 
Ba1 Co2 Ba1 112.398(7) 5_445 13_556 ? 
Ba1 Co2 Ba1 74.109(5) 5_545 13_556 ? 
O4 Co2 Ba1 52.116(4) . 13_455 ? 
O4 Co2 Ba1 134.199(10) 2 13_455 ? 
S3 Co2 Ba1 115.412(9) 5_545 13_455 ? 
S3 Co2 Ba1 60.034(5) 5_445 13_455 ? 
Ba1 Co2 Ba1 74.109(5) 5_445 13_455 ? 
Ba1 Co2 Ba1 112.398(7) 5_545 13_455 ? 
Ba1 Co2 Ba1 172.313(12) 13_556 13_455 ? 
O4 Co2 Ba1 134.199(10) . 13_456 ? 
O4 Co2 Ba1 52.116(4) 2 13_456 ? 
S3 Co2 Ba1 115.412(9) 5_545 13_456 ? 
S3 Co2 Ba1 60.034(5) 5_445 13_456 ? 
Ba1 Co2 Ba1 74.109(5) 5_445 13_456 ? 
Ba1 Co2 Ba1 112.398(7) 5_545 13_456 ? 
Ba1 Co2 Ba1 66.117(6) 13_556 13_456 ? 
Ba1 Co2 Ba1 113.322(6) 13_455 13_456 ? 
O4 Co2 Ba1 52.116(4) . 13 ? 
O4 Co2 Ba1 134.199(10) 2 13 ? 
S3 Co2 Ba1 60.034(5) 5_545 13 ? 
S3 Co2 Ba1 115.412(9) 5_445 13 ? 
Ba1 Co2 Ba1 112.398(7) 5_445 13 ? 
Ba1 Co2 Ba1 74.109(5) 5_545 13 ? 
Ba1 Co2 Ba1 113.322(6) 13_556 13 ? 
Ba1 Co2 Ba1 66.117(6) 13_455 13 ? 
Ba1 Co2 Ba1 172.313(12) 13_456 13 ? 
O4 Co2 Ba1 128.302(8) . . ? 
O4 Co2 Ba1 128.302(8) 2 . ? 
S3 Co2 Ba1 58.339(15) 5_545 . ? 
S3 Co2 Ba1 58.339(15) 5_445 . ? 
Ba1 Co2 Ba1 143.113(5) 5_445 . ? 
Ba1 Co2 Ba1 143.113(5) 5_545 . ? 
Ba1 Co2 Ba1 86.156(6) 13_556 . ? 
Ba1 Co2 Ba1 86.156(6) 13_455 . ? 
Ba1 Co2 Ba1 86.156(6) 13_456 . ? 
Ba1 Co2 Ba1 86.156(6) 13 . ? 
Co2 S3 Co2 116.68(3) 5_455 5 ? 
Co2 S3 Ba1 160.28(2) 5_455 5 ? 
Co2 S3 Ba1 83.039(11) 5 5 ? 
Co2 S3 Ba1 83.039(11) 5_455 5_455 ? 
Co2 S3 Ba1 160.28(2) 5 5_455 ? 
Ba1 S3 Ba1 77.243(15) 5 5_455 ? 
Co2 S3 Ba1 80.731(9) 5_455 9_565 ? 
Co2 S3 Ba1 80.731(9) 5 9_565 ? 
Ba1 S3 Ba1 103.871(7) 5 9_565 ? 
Ba1 S3 Ba1 103.871(7) 5_455 9_565 ? 
Co2 S3 Ba1 80.731(9) 5_455 9_566 ? 
Co2 S3 Ba1 80.731(9) 5 9_566 ? 
Ba1 S3 Ba1 103.871(7) 5 9_566 ? 
Ba1 S3 Ba1 103.871(7) 5_455 9_566 ? 
Ba1 S3 Ba1 144.26(2) 9_565 9_566 ? 
Co2 O4 Co2 180.000(16) 9 . ? 
Co2 O4 Ba1 95.915(7) 9 5_445 ? 
Co2 O4 Ba1 84.085(7) . 5_445 ? 
Co2 O4 Ba1 95.915(7) 9 5_545 ? 
Co2 O4 Ba1 84.085(7) . 5_545 ? 
Ba1 O4 Ba1 86.859(6) 5_445 5_545 ? 
Co2 O4 Ba1 84.085(7) 9 13_455 ? 
Co2 O4 Ba1 95.915(7) . 13_455 ? 
Ba1 O4 Ba1 93.141(6) 5_445 13_455 ? 
Ba1 O4 Ba1 180.000(4) 5_545 13_455 ? 
Co2 O4 Ba1 84.085(7) 9 13 ? 
Co2 O4 Ba1 95.915(7) . 13 ? 
Ba1 O4 Ba1 180.000(4) 5_445 13 ? 
Ba1 O4 Ba1 93.141(6) 5_545 13 ? 
Ba1 O4 Ba1 86.859(6) 13_455 13 ? 
 
_diffrn_measured_fraction_theta_max    0.976 
_diffrn_reflns_theta_full              48.17 
_diffrn_measured_fraction_theta_full   0.976 
_refine_diff_density_max    3.051 
_refine_diff_density_min   -1.714 
_refine_diff_density_rms    0.268 
